<?xml version="1.0" encoding="UTF-8"?>

<!-- generated on 2022-12-15 17:47:57 by Eclipse SUMO sumo Version 1.14.0
<configuration xmlns:xsi="http://www.w3.org/2001/XMLSchema-instance" xsi:noNamespaceSchemaLocation="http://sumo.dlr.de/xsd/sumoConfiguration.xsd">

    <input>
        <net-file value="simulation\TramWay\SumoEnvironment\network.net.xml"/>
        <route-files value="simulation\TramWay\SumoEnvironment\routes.xml"/>
        <additional-files value="simulation\TramWay\SumoEnvironment\vehicles.xml,simulation\TramWay\SumoEnvironment\poi.xml,simulation\TramWay\SumoEnvironment\loops.xml"/>
    </input>

    <output>
        <queue-output value="simulation\TramWay\SumoEnvironment\queueoutput.xml"/>
        <tripinfo-output value="simulation\TramWay\SumoEnvironment\tripinfo.xml"/>
    </output>

    <time>
        <step-length value="0.1"/>
    </time>

    <traci_server>
        <remote-port value="55182"/>
    </traci_server>

    <random_number>
        <seed value="0"/>
    </random_number>

    <gui_only>
        <gui-settings-file value="simulation\TramWay\SumoEnvironment\settings.xml"/>
        <start value="true"/>
    </gui_only>

</configuration>
-->

<tripinfos xmlns:xsi="http://www.w3.org/2001/XMLSchema-instance" xsi:noNamespaceSchemaLocation="http://sumo.dlr.de/xsd/tripinfo_file.xsd">
    <tripinfo id="CarID_0" depart="4.10" departLane="carInEdge_0" departPos="0.00" departSpeed="13.89" departDelay="0.00" arrival="34.10" arrivalLane="carOutEdge_0" arrivalPos="25.00" arrivalSpeed="12.18" duration="30.00" routeLength="175.00" waitingTime="14.20" waitingCount="1" stopTime="0.00" timeLoss="17.39" rerouteNo="0" devices="tripinfo_CarID_0" vType="car" speedFactor="1.12" vaporized=""/>
    <tripinfo id="CarID_1" depart="20.30" departLane="carInEdge_0" departPos="0.00" departSpeed="13.89" departDelay="0.00" arrival="35.20" arrivalLane="carOutEdge_0" arrivalPos="25.00" arrivalSpeed="13.70" duration="14.90" routeLength="175.00" waitingTime="0.00" waitingCount="0" stopTime="0.00" timeLoss="2.29" rerouteNo="0" devices="tripinfo_CarID_1" vType="car" speedFactor="1.05" vaporized=""/>
    <tripinfo id="CarID_2" depart="23.10" departLane="carInEdge_0" departPos="0.00" departSpeed="13.89" departDelay="0.00" arrival="36.50" arrivalLane="carOutEdge_0" arrivalPos="25.00" arrivalSpeed="13.89" duration="13.40" routeLength="175.00" waitingTime="0.00" waitingCount="0" stopTime="0.00" timeLoss="0.72" rerouteNo="0" devices="tripinfo_CarID_2" vType="car" speedFactor="1.03" vaporized=""/>
    <tripinfo id="TramID_0" depart="42.10" departLane="tram1InEdge_0" departPos="0.00" departSpeed="20.00" departDelay="0.00" arrival="49.20" arrivalLane="tram1OutEdge_0" arrivalPos="100.00" arrivalSpeed="30.00" duration="7.10" routeLength="200.00" waitingTime="0.00" waitingCount="0" stopTime="0.00" timeLoss="0.40" rerouteNo="0" devices="tripinfo_TramID_0" vType="tramway" speedFactor="1.00" vaporized=""/>
    <tripinfo id="Tram2ID_0" depart="55.80" departLane="tram2InEdge_0" departPos="0.00" departSpeed="20.00" departDelay="0.00" arrival="62.90" arrivalLane="tram2OutEdge_0" arrivalPos="100.00" arrivalSpeed="30.00" duration="7.10" routeLength="200.00" waitingTime="0.00" waitingCount="0" stopTime="0.00" timeLoss="0.40" rerouteNo="0" devices="tripinfo_Tram2ID_0" vType="tramway" speedFactor="1.00" vaporized=""/>
    <tripinfo id="CarID_3" depart="47.90" departLane="carInEdge_0" departPos="0.00" departSpeed="13.89" departDelay="0.00" arrival="94.10" arrivalLane="carOutEdge_0" arrivalPos="25.00" arrivalSpeed="12.18" duration="46.20" routeLength="175.00" waitingTime="30.40" waitingCount="1" stopTime="0.00" timeLoss="33.59" rerouteNo="0" devices="tripinfo_CarID_3" vType="car" speedFactor="1.02" vaporized=""/>
    <tripinfo id="CarID_4" depart="56.90" departLane="carInEdge_0" departPos="0.00" departSpeed="12.26" departDelay="0.00" arrival="95.20" arrivalLane="carOutEdge_0" arrivalPos="25.00" arrivalSpeed="12.26" duration="38.30" routeLength="175.00" waitingTime="17.30" waitingCount="1" stopTime="0.00" timeLoss="23.99" rerouteNo="0" devices="tripinfo_CarID_4" vType="car" speedFactor="0.88" vaporized=""/>
    <tripinfo id="CarID_5" depart="89.70" departLane="carInEdge_0" departPos="0.00" departSpeed="13.89" departDelay="0.00" arrival="102.30" arrivalLane="carOutEdge_0" arrivalPos="25.00" arrivalSpeed="13.89" duration="12.60" routeLength="175.00" waitingTime="0.00" waitingCount="0" stopTime="0.00" timeLoss="0.00" rerouteNo="0" devices="tripinfo_CarID_5" vType="car" speedFactor="1.16" vaporized=""/>
    <tripinfo id="CarID_6" depart="103.90" departLane="carInEdge_0" departPos="0.00" departSpeed="13.13" departDelay="0.00" arrival="144.10" arrivalLane="carOutEdge_0" arrivalPos="25.00" arrivalSpeed="12.18" duration="40.20" routeLength="175.00" waitingTime="23.80" waitingCount="1" stopTime="0.00" timeLoss="26.86" rerouteNo="0" devices="tripinfo_CarID_6" vType="car" speedFactor="0.95" vaporized=""/>
    <tripinfo id="CarID_7" depart="128.20" departLane="carInEdge_0" departPos="0.00" departSpeed="10.62" departDelay="0.00" arrival="145.50" arrivalLane="carOutEdge_0" arrivalPos="25.00" arrivalSpeed="10.62" duration="17.30" routeLength="175.00" waitingTime="0.00" waitingCount="0" stopTime="0.00" timeLoss="0.74" rerouteNo="0" devices="tripinfo_CarID_7" vType="car" speedFactor="0.76" vaporized=""/>
    <tripinfo id="CarID_8" depart="153.90" departLane="carInEdge_0" departPos="0.00" departSpeed="13.89" departDelay="0.00" arrival="204.10" arrivalLane="carOutEdge_0" arrivalPos="25.00" arrivalSpeed="12.18" duration="50.20" routeLength="175.00" waitingTime="34.40" waitingCount="1" stopTime="0.00" timeLoss="37.59" rerouteNo="0" devices="tripinfo_CarID_8" vType="car" speedFactor="1.05" vaporized=""/>
    <tripinfo id="CarID_9" depart="245.20" departLane="carInEdge_0" departPos="0.00" departSpeed="13.89" departDelay="0.00" arrival="257.80" arrivalLane="carOutEdge_0" arrivalPos="25.00" arrivalSpeed="13.89" duration="12.60" routeLength="175.00" waitingTime="0.00" waitingCount="0" stopTime="0.00" timeLoss="0.00" rerouteNo="0" devices="tripinfo_CarID_9" vType="car" speedFactor="1.27" vaporized=""/>
    <tripinfo id="CarID_10" depart="282.70" departLane="carInEdge_0" departPos="0.00" departSpeed="13.89" departDelay="0.00" arrival="314.10" arrivalLane="carOutEdge_0" arrivalPos="25.00" arrivalSpeed="12.18" duration="31.40" routeLength="175.00" waitingTime="15.60" waitingCount="1" stopTime="0.00" timeLoss="18.79" rerouteNo="0" devices="tripinfo_CarID_10" vType="car" speedFactor="1.13" vaporized=""/>
    <tripinfo id="CarID_11" depart="292.00" departLane="carInEdge_0" departPos="0.00" departSpeed="13.13" departDelay="0.00" arrival="315.20" arrivalLane="carOutEdge_0" arrivalPos="25.00" arrivalSpeed="13.13" duration="23.20" routeLength="175.00" waitingTime="2.80" waitingCount="1" stopTime="0.00" timeLoss="9.82" rerouteNo="0" devices="tripinfo_CarID_11" vType="car" speedFactor="0.95" vaporized=""/>
    <tripinfo id="CarID_12" depart="312.80" departLane="carInEdge_0" departPos="0.00" departSpeed="12.94" departDelay="0.00" arrival="326.40" arrivalLane="carOutEdge_0" arrivalPos="25.00" arrivalSpeed="12.94" duration="13.60" routeLength="175.00" waitingTime="0.00" waitingCount="0" stopTime="0.00" timeLoss="0.00" rerouteNo="0" devices="tripinfo_CarID_12" vType="car" speedFactor="0.93" vaporized=""/>
    <tripinfo id="CarID_13" depart="341.20" departLane="carInEdge_0" departPos="0.00" departSpeed="13.70" departDelay="0.00" arrival="364.10" arrivalLane="carOutEdge_0" arrivalPos="25.00" arrivalSpeed="12.18" duration="22.90" routeLength="175.00" waitingTime="6.90" waitingCount="1" stopTime="0.00" timeLoss="10.11" rerouteNo="0" devices="tripinfo_CarID_13" vType="car" speedFactor="0.99" vaporized=""/>
    <tripinfo id="CarID_14" depart="342.60" departLane="carInEdge_0" departPos="0.00" departSpeed="13.89" departDelay="0.00" arrival="365.20" arrivalLane="carOutEdge_0" arrivalPos="25.00" arrivalSpeed="13.23" duration="22.60" routeLength="175.00" waitingTime="2.70" waitingCount="1" stopTime="0.00" timeLoss="9.95" rerouteNo="0" devices="tripinfo_CarID_14" vType="car" speedFactor="1.04" vaporized=""/>
    <tripinfo id="CarID_15" depart="383.40" departLane="carInEdge_0" departPos="0.00" departSpeed="13.89" departDelay="0.00" arrival="424.10" arrivalLane="carOutEdge_0" arrivalPos="25.00" arrivalSpeed="12.18" duration="40.70" routeLength="175.00" waitingTime="24.90" waitingCount="1" stopTime="0.00" timeLoss="28.09" rerouteNo="0" devices="tripinfo_CarID_15" vType="car" speedFactor="1.04" vaporized=""/>
    <tripinfo id="CarID_16" depart="385.10" departLane="carInEdge_0" departPos="0.00" departSpeed="13.89" departDelay="0.00" arrival="425.20" arrivalLane="carOutEdge_0" arrivalPos="25.00" arrivalSpeed="13.23" duration="40.10" routeLength="175.00" waitingTime="20.20" waitingCount="1" stopTime="0.00" timeLoss="27.45" rerouteNo="0" devices="tripinfo_CarID_16" vType="car" speedFactor="1.06" vaporized=""/>
    <tripinfo id="CarID_17" depart="391.90" departLane="carInEdge_0" departPos="0.00" departSpeed="10.06" departDelay="0.00" arrival="426.50" arrivalLane="carOutEdge_0" arrivalPos="25.00" arrivalSpeed="10.06" duration="34.60" routeLength="175.00" waitingTime="10.90" waitingCount="1" stopTime="0.00" timeLoss="17.17" rerouteNo="0" devices="tripinfo_CarID_17" vType="car" speedFactor="0.72" vaporized=""/>
    <tripinfo id="CarID_18" depart="405.50" departLane="carInEdge_0" departPos="0.00" departSpeed="13.89" departDelay="0.00" arrival="427.70" arrivalLane="carOutEdge_0" arrivalPos="25.00" arrivalSpeed="12.70" duration="22.20" routeLength="175.00" waitingTime="1.20" waitingCount="1" stopTime="0.00" timeLoss="9.56" rerouteNo="0" devices="tripinfo_CarID_18" vType="car" speedFactor="1.11" vaporized=""/>
    <tripinfo id="Tram2ID_1" depart="486.70" departLane="tram2InEdge_0" departPos="0.00" departSpeed="20.00" departDelay="0.00" arrival="493.80" arrivalLane="tram2OutEdge_0" arrivalPos="100.00" arrivalSpeed="30.00" duration="7.10" routeLength="200.00" waitingTime="0.00" waitingCount="0" stopTime="0.00" timeLoss="0.40" rerouteNo="0" devices="tripinfo_Tram2ID_1" vType="tramway" speedFactor="1.00" vaporized=""/>
    <tripinfo id="TramID_1" depart="496.60" departLane="tram1InEdge_0" departPos="0.00" departSpeed="20.00" departDelay="0.00" arrival="503.70" arrivalLane="tram1OutEdge_0" arrivalPos="100.00" arrivalSpeed="30.00" duration="7.10" routeLength="200.00" waitingTime="0.00" waitingCount="0" stopTime="0.00" timeLoss="0.40" rerouteNo="0" devices="tripinfo_TramID_1" vType="tramway" speedFactor="1.00" vaporized=""/>
    <tripinfo id="CarID_19" depart="568.20" departLane="carInEdge_0" departPos="0.00" departSpeed="13.04" departDelay="0.00" arrival="581.70" arrivalLane="carOutEdge_0" arrivalPos="25.00" arrivalSpeed="13.04" duration="13.50" routeLength="175.00" waitingTime="0.00" waitingCount="0" stopTime="0.00" timeLoss="0.00" rerouteNo="0" devices="tripinfo_CarID_19" vType="car" speedFactor="0.94" vaporized=""/>
    <tripinfo id="CarID_20" depart="590.90" departLane="carInEdge_0" departPos="0.00" departSpeed="13.89" departDelay="0.00" arrival="644.10" arrivalLane="carOutEdge_0" arrivalPos="25.00" arrivalSpeed="12.18" duration="53.20" routeLength="175.00" waitingTime="37.40" waitingCount="1" stopTime="0.00" timeLoss="40.59" rerouteNo="0" devices="tripinfo_CarID_20" vType="car" speedFactor="1.18" vaporized=""/>
    <tripinfo id="CarID_21" depart="592.80" departLane="carInEdge_0" departPos="0.00" departSpeed="12.30" departDelay="0.00" arrival="645.20" arrivalLane="carOutEdge_0" arrivalPos="25.00" arrivalSpeed="12.30" duration="52.40" routeLength="175.00" waitingTime="31.40" waitingCount="1" stopTime="0.00" timeLoss="38.13" rerouteNo="0" devices="tripinfo_CarID_21" vType="car" speedFactor="0.89" vaporized=""/>
    <tripinfo id="CarID_22" depart="617.90" departLane="carInEdge_0" departPos="0.00" departSpeed="13.89" departDelay="0.00" arrival="646.30" arrivalLane="carOutEdge_0" arrivalPos="25.00" arrivalSpeed="13.82" duration="28.40" routeLength="175.00" waitingTime="8.20" waitingCount="1" stopTime="0.00" timeLoss="15.73" rerouteNo="0" devices="tripinfo_CarID_22" vType="car" speedFactor="1.01" vaporized=""/>
    <tripinfo id="CarID_23" depart="621.30" departLane="carInEdge_0" departPos="0.00" departSpeed="10.41" departDelay="0.00" arrival="647.60" arrivalLane="carOutEdge_0" arrivalPos="25.00" arrivalSpeed="10.41" duration="26.30" routeLength="175.00" waitingTime="2.80" waitingCount="1" stopTime="0.00" timeLoss="9.46" rerouteNo="0" devices="tripinfo_CarID_23" vType="car" speedFactor="0.75" vaporized=""/>
    <tripinfo id="CarID_24" depart="637.60" departLane="carInEdge_0" departPos="0.00" departSpeed="13.07" departDelay="0.00" arrival="651.00" arrivalLane="carOutEdge_0" arrivalPos="25.00" arrivalSpeed="13.07" duration="13.40" routeLength="175.00" waitingTime="0.00" waitingCount="0" stopTime="0.00" timeLoss="0.00" rerouteNo="0" devices="tripinfo_CarID_24" vType="car" speedFactor="0.94" vaporized=""/>
    <tripinfo id="CarID_25" depart="669.50" departLane="carInEdge_0" departPos="0.00" departSpeed="13.89" departDelay="0.00" arrival="682.40" arrivalLane="carOutEdge_0" arrivalPos="25.00" arrivalSpeed="13.89" duration="12.90" routeLength="175.00" waitingTime="0.00" waitingCount="0" stopTime="0.00" timeLoss="0.29" rerouteNo="0" devices="tripinfo_CarID_25" vType="car" speedFactor="1.09" vaporized=""/>
    <tripinfo id="CarID_26" depart="755.50" departLane="carInEdge_0" departPos="0.00" departSpeed="13.57" departDelay="0.00" arrival="794.10" arrivalLane="carOutEdge_0" arrivalPos="25.00" arrivalSpeed="12.18" duration="38.60" routeLength="175.00" waitingTime="22.50" waitingCount="1" stopTime="0.00" timeLoss="25.69" rerouteNo="0" devices="tripinfo_CarID_26" vType="car" speedFactor="0.98" vaporized=""/>
    <tripinfo id="CarID_27" depart="772.90" departLane="carInEdge_0" departPos="0.00" departSpeed="13.89" departDelay="0.00" arrival="795.20" arrivalLane="carOutEdge_0" arrivalPos="25.00" arrivalSpeed="13.23" duration="22.30" routeLength="175.00" waitingTime="2.40" waitingCount="1" stopTime="0.00" timeLoss="9.65" rerouteNo="0" devices="tripinfo_CarID_27" vType="car" speedFactor="1.02" vaporized=""/>
    <tripinfo id="CarID_28" depart="785.00" departLane="carInEdge_0" departPos="0.00" departSpeed="13.89" departDelay="0.00" arrival="797.60" arrivalLane="carOutEdge_0" arrivalPos="25.00" arrivalSpeed="13.89" duration="12.60" routeLength="175.00" waitingTime="0.00" waitingCount="0" stopTime="0.00" timeLoss="0.00" rerouteNo="0" devices="tripinfo_CarID_28" vType="car" speedFactor="1.03" vaporized=""/>
    <tripinfo id="CarID_29" depart="787.10" departLane="carInEdge_0" departPos="0.00" departSpeed="13.89" departDelay="0.00" arrival="799.70" arrivalLane="carOutEdge_0" arrivalPos="25.00" arrivalSpeed="13.89" duration="12.60" routeLength="175.00" waitingTime="0.00" waitingCount="0" stopTime="0.00" timeLoss="0.00" rerouteNo="0" devices="tripinfo_CarID_29" vType="car" speedFactor="1.05" vaporized=""/>
    <tripinfo id="Tram2ID_2" depart="841.90" departLane="tram2InEdge_0" departPos="0.00" departSpeed="20.00" departDelay="0.00" arrival="849.00" arrivalLane="tram2OutEdge_0" arrivalPos="100.00" arrivalSpeed="30.00" duration="7.10" routeLength="200.00" waitingTime="0.00" waitingCount="0" stopTime="0.00" timeLoss="0.40" rerouteNo="0" devices="tripinfo_Tram2ID_2" vType="tramway" speedFactor="1.00" vaporized=""/>
    <tripinfo id="TramID_2" depart="887.00" departLane="tram1InEdge_0" departPos="0.00" departSpeed="20.00" departDelay="0.00" arrival="894.10" arrivalLane="tram1OutEdge_0" arrivalPos="100.00" arrivalSpeed="30.00" duration="7.10" routeLength="200.00" waitingTime="0.00" waitingCount="0" stopTime="0.00" timeLoss="0.40" rerouteNo="0" devices="tripinfo_TramID_2" vType="tramway" speedFactor="1.00" vaporized=""/>
    <tripinfo id="CarID_30" depart="955.10" departLane="carInEdge_0" departPos="0.00" departSpeed="13.89" departDelay="0.00" arrival="974.10" arrivalLane="carOutEdge_0" arrivalPos="25.00" arrivalSpeed="12.18" duration="19.00" routeLength="175.00" waitingTime="3.20" waitingCount="1" stopTime="0.00" timeLoss="6.39" rerouteNo="0" devices="tripinfo_CarID_30" vType="car" speedFactor="1.15" vaporized=""/>
    <tripinfo id="CarID_31" depart="965.60" departLane="carInEdge_0" departPos="0.00" departSpeed="13.89" departDelay="0.00" arrival="978.20" arrivalLane="carOutEdge_0" arrivalPos="25.00" arrivalSpeed="13.89" duration="12.60" routeLength="175.00" waitingTime="0.00" waitingCount="0" stopTime="0.00" timeLoss="0.00" rerouteNo="0" devices="tripinfo_CarID_31" vType="car" speedFactor="1.19" vaporized=""/>
    <tripinfo id="CarID_32" depart="984.30" departLane="carInEdge_0" departPos="0.00" departSpeed="11.70" departDelay="0.00" arrival="1014.10" arrivalLane="carOutEdge_0" arrivalPos="25.00" arrivalSpeed="11.70" duration="29.80" routeLength="175.00" waitingTime="12.10" waitingCount="1" stopTime="0.00" timeLoss="14.84" rerouteNo="0" devices="tripinfo_CarID_32" vType="car" speedFactor="0.84" vaporized=""/>
    <tripinfo id="Tram2ID_3" depart="1051.00" departLane="tram2InEdge_0" departPos="0.00" departSpeed="20.00" departDelay="0.00" arrival="1058.10" arrivalLane="tram2OutEdge_0" arrivalPos="100.00" arrivalSpeed="30.00" duration="7.10" routeLength="200.00" waitingTime="0.00" waitingCount="0" stopTime="0.00" timeLoss="0.40" rerouteNo="0" devices="tripinfo_Tram2ID_3" vType="tramway" speedFactor="1.00" vaporized=""/>
    <tripinfo id="TramID_3" depart="1074.20" departLane="tram1InEdge_0" departPos="0.00" departSpeed="20.00" departDelay="0.00" arrival="1081.30" arrivalLane="tram1OutEdge_0" arrivalPos="100.00" arrivalSpeed="30.00" duration="7.10" routeLength="200.00" waitingTime="0.00" waitingCount="0" stopTime="0.00" timeLoss="0.40" rerouteNo="0" devices="tripinfo_TramID_3" vType="tramway" speedFactor="1.00" vaporized=""/>
    <tripinfo id="CarID_33" depart="1031.30" departLane="carInEdge_0" departPos="0.00" departSpeed="13.69" departDelay="0.00" arrival="1096.60" arrivalLane="carOutEdge_0" arrivalPos="25.00" arrivalSpeed="12.18" duration="65.30" routeLength="175.00" waitingTime="49.30" waitingCount="1" stopTime="0.00" timeLoss="52.51" rerouteNo="0" devices="tripinfo_CarID_33" vType="car" speedFactor="0.99" vaporized=""/>
    <tripinfo id="CarID_34" depart="1044.70" departLane="carInEdge_0" departPos="0.00" departSpeed="13.89" departDelay="0.00" arrival="1124.00" arrivalLane="carOutEdge_0" arrivalPos="25.00" arrivalSpeed="11.89" duration="79.30" routeLength="175.00" waitingTime="58.10" waitingCount="2" stopTime="0.00" timeLoss="66.70" rerouteNo="0" devices="tripinfo_CarID_34" vType="car" speedFactor="1.03" vaporized=""/>
    <tripinfo id="CarID_35" depart="1162.50" departLane="carInEdge_0" departPos="0.00" departSpeed="13.89" departDelay="0.00" arrival="1194.10" arrivalLane="carOutEdge_0" arrivalPos="25.00" arrivalSpeed="12.18" duration="31.60" routeLength="175.00" waitingTime="15.80" waitingCount="1" stopTime="0.00" timeLoss="18.99" rerouteNo="0" devices="tripinfo_CarID_35" vType="car" speedFactor="1.13" vaporized=""/>
    <tripinfo id="TramID_4" depart="1226.40" departLane="tram1InEdge_0" departPos="0.00" departSpeed="20.00" departDelay="0.00" arrival="1233.50" arrivalLane="tram1OutEdge_0" arrivalPos="100.00" arrivalSpeed="30.00" duration="7.10" routeLength="200.00" waitingTime="0.00" waitingCount="0" stopTime="0.00" timeLoss="0.40" rerouteNo="0" devices="tripinfo_TramID_4" vType="tramway" speedFactor="1.00" vaporized=""/>
    <tripinfo id="Tram2ID_4" depart="1268.70" departLane="tram2InEdge_0" departPos="0.00" departSpeed="20.00" departDelay="0.00" arrival="1275.80" arrivalLane="tram2OutEdge_0" arrivalPos="100.00" arrivalSpeed="30.00" duration="7.10" routeLength="200.00" waitingTime="0.00" waitingCount="0" stopTime="0.00" timeLoss="0.40" rerouteNo="0" devices="tripinfo_Tram2ID_4" vType="tramway" speedFactor="1.00" vaporized=""/>
    <tripinfo id="CarID_36" depart="1300.90" departLane="carInEdge_0" departPos="0.00" departSpeed="13.89" departDelay="0.00" arrival="1313.50" arrivalLane="carOutEdge_0" arrivalPos="25.00" arrivalSpeed="13.89" duration="12.60" routeLength="175.00" waitingTime="0.00" waitingCount="0" stopTime="0.00" timeLoss="0.00" rerouteNo="0" devices="tripinfo_CarID_36" vType="car" speedFactor="1.05" vaporized=""/>
    <tripinfo id="CarID_37" depart="1302.30" departLane="carInEdge_0" departPos="0.00" departSpeed="12.24" departDelay="0.00" arrival="1316.60" arrivalLane="carOutEdge_0" arrivalPos="25.00" arrivalSpeed="12.24" duration="14.30" routeLength="175.00" waitingTime="0.00" waitingCount="0" stopTime="0.00" timeLoss="0.00" rerouteNo="0" devices="tripinfo_CarID_37" vType="car" speedFactor="0.88" vaporized=""/>
    <tripinfo id="CarID_38" depart="1305.60" departLane="carInEdge_0" departPos="0.00" departSpeed="13.12" departDelay="0.00" arrival="1344.10" arrivalLane="carOutEdge_0" arrivalPos="25.00" arrivalSpeed="12.18" duration="38.50" routeLength="175.00" waitingTime="22.10" waitingCount="1" stopTime="0.00" timeLoss="25.15" rerouteNo="0" devices="tripinfo_CarID_38" vType="car" speedFactor="0.94" vaporized=""/>
    <tripinfo id="CarID_39" depart="1410.60" departLane="carInEdge_0" departPos="0.00" departSpeed="11.68" departDelay="0.00" arrival="1425.60" arrivalLane="carOutEdge_0" arrivalPos="25.00" arrivalSpeed="11.68" duration="15.00" routeLength="175.00" waitingTime="0.00" waitingCount="0" stopTime="0.00" timeLoss="0.00" rerouteNo="0" devices="tripinfo_CarID_39" vType="car" speedFactor="0.84" vaporized=""/>
    <tripinfo id="TramID_5" depart="1475.80" departLane="tram1InEdge_0" departPos="0.00" departSpeed="20.00" departDelay="0.00" arrival="1482.90" arrivalLane="tram1OutEdge_0" arrivalPos="100.00" arrivalSpeed="30.00" duration="7.10" routeLength="200.00" waitingTime="0.00" waitingCount="0" stopTime="0.00" timeLoss="0.40" rerouteNo="0" devices="tripinfo_TramID_5" vType="tramway" speedFactor="1.00" vaporized=""/>
    <tripinfo id="Tram2ID_5" depart="1490.60" departLane="tram2InEdge_0" departPos="0.00" departSpeed="20.00" departDelay="0.00" arrival="1497.70" arrivalLane="tram2OutEdge_0" arrivalPos="100.00" arrivalSpeed="30.00" duration="7.10" routeLength="200.00" waitingTime="0.00" waitingCount="0" stopTime="0.00" timeLoss="0.40" rerouteNo="0" devices="tripinfo_Tram2ID_5" vType="tramway" speedFactor="1.00" vaporized=""/>
    <tripinfo id="CarID_40" depart="1482.70" departLane="carInEdge_0" departPos="0.00" departSpeed="12.35" departDelay="0.00" arrival="1524.10" arrivalLane="carOutEdge_0" arrivalPos="25.00" arrivalSpeed="12.18" duration="41.40" routeLength="175.00" waitingTime="24.30" waitingCount="1" stopTime="0.00" timeLoss="27.21" rerouteNo="0" devices="tripinfo_CarID_40" vType="car" speedFactor="0.89" vaporized=""/>
    <tripinfo id="CarID_41" depart="1492.30" departLane="carInEdge_0" departPos="0.00" departSpeed="13.89" departDelay="0.00" arrival="1525.20" arrivalLane="carOutEdge_0" arrivalPos="25.00" arrivalSpeed="13.23" duration="32.90" routeLength="175.00" waitingTime="13.00" waitingCount="1" stopTime="0.00" timeLoss="20.25" rerouteNo="0" devices="tripinfo_CarID_41" vType="car" speedFactor="1.01" vaporized=""/>
    <tripinfo id="CarID_42" depart="1549.10" departLane="carInEdge_0" departPos="0.00" departSpeed="12.61" departDelay="0.00" arrival="1563.00" arrivalLane="carOutEdge_0" arrivalPos="25.00" arrivalSpeed="12.61" duration="13.90" routeLength="175.00" waitingTime="0.00" waitingCount="0" stopTime="0.00" timeLoss="0.00" rerouteNo="0" devices="tripinfo_CarID_42" vType="car" speedFactor="0.91" vaporized=""/>
    <tripinfo id="CarID_43" depart="1595.90" departLane="carInEdge_0" departPos="0.00" departSpeed="12.85" departDelay="0.00" arrival="1634.10" arrivalLane="carOutEdge_0" arrivalPos="25.00" arrivalSpeed="12.18" duration="38.20" routeLength="175.00" waitingTime="21.60" waitingCount="1" stopTime="0.00" timeLoss="24.57" rerouteNo="0" devices="tripinfo_CarID_43" vType="car" speedFactor="0.93" vaporized=""/>
    <tripinfo id="CarID_44" depart="1603.00" departLane="carInEdge_0" departPos="0.00" departSpeed="12.21" departDelay="0.00" arrival="1635.20" arrivalLane="carOutEdge_0" arrivalPos="25.00" arrivalSpeed="12.21" duration="32.20" routeLength="175.00" waitingTime="11.10" waitingCount="1" stopTime="0.00" timeLoss="17.83" rerouteNo="0" devices="tripinfo_CarID_44" vType="car" speedFactor="0.88" vaporized=""/>
    <tripinfo id="CarID_45" depart="1615.90" departLane="carInEdge_0" departPos="0.00" departSpeed="13.89" departDelay="0.00" arrival="1636.30" arrivalLane="carOutEdge_0" arrivalPos="25.00" arrivalSpeed="13.76" duration="20.40" routeLength="175.00" waitingTime="0.00" waitingCount="0" stopTime="0.00" timeLoss="7.74" rerouteNo="0" devices="tripinfo_CarID_45" vType="car" speedFactor="1.18" vaporized=""/>
    <tripinfo id="CarID_46" depart="1656.30" departLane="carInEdge_0" departPos="0.00" departSpeed="11.77" departDelay="0.00" arrival="1671.20" arrivalLane="carOutEdge_0" arrivalPos="25.00" arrivalSpeed="11.77" duration="14.90" routeLength="175.00" waitingTime="0.00" waitingCount="0" stopTime="0.00" timeLoss="0.00" rerouteNo="0" devices="tripinfo_CarID_46" vType="car" speedFactor="0.85" vaporized=""/>
    <tripinfo id="CarID_47" depart="1688.90" departLane="carInEdge_0" departPos="0.00" departSpeed="10.40" departDelay="0.00" arrival="1724.20" arrivalLane="carOutEdge_0" arrivalPos="25.00" arrivalSpeed="10.40" duration="35.30" routeLength="175.00" waitingTime="16.00" waitingCount="1" stopTime="0.00" timeLoss="18.41" rerouteNo="0" devices="tripinfo_CarID_47" vType="car" speedFactor="0.75" vaporized=""/>
    <tripinfo id="Tram2ID_6" depart="1720.80" departLane="tram2InEdge_0" departPos="0.00" departSpeed="20.00" departDelay="0.00" arrival="1727.90" arrivalLane="tram2OutEdge_0" arrivalPos="100.00" arrivalSpeed="30.00" duration="7.10" routeLength="200.00" waitingTime="0.00" waitingCount="0" stopTime="0.00" timeLoss="0.40" rerouteNo="0" devices="tripinfo_Tram2ID_6" vType="tramway" speedFactor="1.00" vaporized=""/>
    <tripinfo id="TramID_6" depart="1744.40" departLane="tram1InEdge_0" departPos="0.00" departSpeed="20.00" departDelay="0.00" arrival="1751.50" arrivalLane="tram1OutEdge_0" arrivalPos="100.00" arrivalSpeed="30.00" duration="7.10" routeLength="200.00" waitingTime="0.00" waitingCount="0" stopTime="0.00" timeLoss="0.40" rerouteNo="0" devices="tripinfo_TramID_6" vType="tramway" speedFactor="1.00" vaporized=""/>
    <tripinfo id="CarID_48" depart="1712.00" departLane="carInEdge_0" departPos="0.00" departSpeed="12.01" departDelay="0.00" arrival="1765.60" arrivalLane="carOutEdge_0" arrivalPos="25.00" arrivalSpeed="12.01" duration="53.60" routeLength="175.00" waitingTime="36.20" waitingCount="1" stopTime="0.00" timeLoss="39.01" rerouteNo="0" devices="tripinfo_CarID_48" vType="car" speedFactor="0.86" vaporized=""/>
    <tripinfo id="CarID_49" depart="1775.00" departLane="carInEdge_0" departPos="0.00" departSpeed="12.56" departDelay="0.00" arrival="1834.10" arrivalLane="carOutEdge_0" arrivalPos="25.00" arrivalSpeed="12.18" duration="59.10" routeLength="175.00" waitingTime="42.20" waitingCount="1" stopTime="0.00" timeLoss="45.15" rerouteNo="0" devices="tripinfo_CarID_49" vType="car" speedFactor="0.90" vaporized=""/>
    <tripinfo id="CarID_50" depart="1820.70" departLane="carInEdge_0" departPos="0.00" departSpeed="12.88" departDelay="0.00" arrival="1835.30" arrivalLane="carOutEdge_0" arrivalPos="25.00" arrivalSpeed="12.88" duration="14.60" routeLength="175.00" waitingTime="0.00" waitingCount="0" stopTime="0.00" timeLoss="1.00" rerouteNo="0" devices="tripinfo_CarID_50" vType="car" speedFactor="0.93" vaporized=""/>
    <tripinfo id="CarID_51" depart="1854.30" departLane="carInEdge_0" departPos="0.00" departSpeed="13.89" departDelay="0.00" arrival="1874.10" arrivalLane="carOutEdge_0" arrivalPos="25.00" arrivalSpeed="12.18" duration="19.80" routeLength="175.00" waitingTime="4.00" waitingCount="1" stopTime="0.00" timeLoss="7.19" rerouteNo="0" devices="tripinfo_CarID_51" vType="car" speedFactor="1.11" vaporized=""/>
    <tripinfo id="CarID_52" depart="1855.90" departLane="carInEdge_0" departPos="0.00" departSpeed="13.22" departDelay="0.00" arrival="1875.20" arrivalLane="carOutEdge_0" arrivalPos="25.00" arrivalSpeed="13.22" duration="19.30" routeLength="175.00" waitingTime="0.00" waitingCount="0" stopTime="0.00" timeLoss="6.01" rerouteNo="0" devices="tripinfo_CarID_52" vType="car" speedFactor="0.95" vaporized=""/>
    <tripinfo id="TramID_7" depart="1913.30" departLane="tram1InEdge_0" departPos="0.00" departSpeed="20.00" departDelay="0.00" arrival="1920.40" arrivalLane="tram1OutEdge_0" arrivalPos="100.00" arrivalSpeed="30.00" duration="7.10" routeLength="200.00" waitingTime="0.00" waitingCount="0" stopTime="0.00" timeLoss="0.40" rerouteNo="0" devices="tripinfo_TramID_7" vType="tramway" speedFactor="1.00" vaporized=""/>
    <tripinfo id="CarID_53" depart="1895.10" departLane="carInEdge_0" departPos="0.00" departSpeed="12.26" departDelay="0.00" arrival="1944.10" arrivalLane="carOutEdge_0" arrivalPos="25.00" arrivalSpeed="12.18" duration="49.00" routeLength="175.00" waitingTime="31.80" waitingCount="1" stopTime="0.00" timeLoss="34.71" rerouteNo="0" devices="tripinfo_CarID_53" vType="car" speedFactor="0.88" vaporized=""/>
    <tripinfo id="Tram2ID_7" depart="1944.40" departLane="tram2InEdge_0" departPos="0.00" departSpeed="20.00" departDelay="0.00" arrival="1951.50" arrivalLane="tram2OutEdge_0" arrivalPos="100.00" arrivalSpeed="30.00" duration="7.10" routeLength="200.00" waitingTime="0.00" waitingCount="0" stopTime="0.00" timeLoss="0.40" rerouteNo="0" devices="tripinfo_Tram2ID_7" vType="tramway" speedFactor="1.00" vaporized=""/>